# vtk DataFile Version 2.0
Exported by getfem++
ASCII
DATASET UNSTRUCTURED_GRID
POINTS 2 float
 0 0 0
 1 0 0

CELLS 1 3
 2 0 1

CELL_TYPES 1
 3

POINT_DATA 2


SCALARS U float 1
LOOKUP_TABLE default
 0 0.5
