# vtk DataFile Version 2.0
Exported by getfem++
ASCII
DATASET UNSTRUCTURED_GRID
POINTS 45 float
 0 0 0
 1250 0 0
 2500 0 0
 0 250 0
 1250 250 0
 2500 250 0
 0 500 0
 1250 500 0
 2500 500 0
 3750 0 0
 5000 0 0
 3750 250 0
 5000 250 0
 3750 500 0
 5000 500 0
 6250 0 0
 7500 0 0
 6250 250 0
 7500 250 0
 6250 500 0
 7500 500 0
 8750 0 0
 10000 0 0
 8750 250 0
 10000 250 0
 8750 500 0
 10000 500 0
 0 750 0
 1250 750 0
 2500 750 0
 0 1000 0
 1250 1000 0
 2500 1000 0
 3750 750 0
 5000 750 0
 3750 1000 0
 5000 1000 0
 6250 750 0
 7500 750 0
 6250 1000 0
 7500 1000 0
 8750 750 0
 10000 750 0
 8750 1000 0
 10000 1000 0

CELLS 8 80
 9 0 2 8 6 1 5 7 3 4
 9 2 10 14 8 9 12 13 5 11
 9 10 16 20 14 15 18 19 12 17
 9 16 22 26 20 21 24 25 18 23
 9 6 8 32 30 7 29 31 27 28
 9 8 14 36 32 13 34 35 29 33
 9 14 20 40 36 19 38 39 34 37
 9 20 26 44 40 25 42 43 38 41

CELL_TYPES 8
 28
 28
 28
 28
 28
 28
 28
 28

POINT_DATA 45


VECTORS U float
 7.33734e-17 -2.74984e-16 0 -0.334874 -0.436429 0 -0.642231 -1.67592 0 -2.8253e-17 2.31793e-16 0 -0.166951 -0.436521 0 -0.319128 -1.67583 0 3.12104e-18 -1.20955e-16 0 -2.1681e-14 -0.436613 0 -4.3249e-14 -1.67574 0 -0.883948 -3.60111 0 -1.0998 -6.09844 0 -0.441711 -3.60114 0 -0.547661 -6.09841 0 -6.57679e-14 -3.60116 0 -8.62517e-14 -6.09838 0 -1.24984 -9.05299 0 -1.37421 -12.3507 0 -0.62468 -9.053 0 -0.684845 -12.3506 0 -1.06422e-13 -9.05301 0 -1.28036e-13 -12.3506 0 -1.43279 -15.8769 0 -1.46574 -19.5178 0 -0.716149 -15.8769 0 -0.730545 -19.5176 0 -1.4086e-13 -15.8769 0 -1.46851e-13 -19.5173 0 1.42871e-17 1.01134e-17 0 0.166951 -0.436521 0 0.319128 -1.67583 0 2.66808e-17 -3.26754e-16 0 0.334874 -0.436429 0 0.642231 -1.67592 0 0.441711 -3.60114 0 0.547661 -6.09841 0 0.883948 -3.60111 0 1.0998 -6.09844 0 0.62468 -9.053 0 0.684845 -12.3506 0 1.24984 -9.05299 0 1.37421 -12.3507 0 0.716149 -15.8769 0 0.730545 -19.5176 0 1.43279 -15.8769 0 1.46574 -19.5178 0
